 Gaussian 16, Revision B.01,
 Gaussian 16:  ES64L-G16RevB.01 20-Dec-2017

 ------------------------
 # hf/sto-6g pop=full opt
 ------------------------

 -------------------------
 CH2CHOCH3 molecule : Opt.
 -------------------------
 Symbolic Z-matrix:
 Charge =  0 Multiplicity = 1

 SCF Done:  E(RHF) =  -191.316916206     A.U. after   12 cycles
 SCF Done:  E(RHF) =  -191.332420050     A.U. after   12 cycles
 SCF Done:  E(RHF) =  -191.334727186     A.U. after   11 cycles
 SCF Done:  E(RHF) =  -191.336329053     A.U. after   10 cycles
 SCF Done:  E(RHF) =  -191.336369844     A.U. after    9 cycles
 SCF Done:  E(RHF) =  -191.336372723     A.U. after    8 cycles
 Optimization completed.
    -- Stationary point found.

                         Standard orientation:
 ---------------------------------------------------------------------
 Center     Atomic      Atomic             Coordinates (Angstroms)
 Number     Number       Type             X           Y           Z
 ---------------------------------------------------------------------
      1          6           0        1.308490    0.832953    0.000000
      2          6           0        0.000000    0.933517    0.000000
      3          1           0        1.911309    1.720894    0.000000
      4          1           0        1.834541   -0.101555    0.000000
      5          1           0       -0.487001    1.903861    0.000000
      6          8           0       -0.962158   -0.067258    0.000000
      7          6           0       -0.419737   -1.390585    0.000000
      8          1           0        0.186111   -1.583614    0.885175
      9          1           0       -1.266320   -2.073220    0.000000
     10          1           0        0.186111   -1.583614   -0.885175
 ---------------------------------------------------------------------

 The electronic state is 1-A'.
 Alpha  occ. eigenvalues --  -20.56013 -11.25310 -11.23587 -11.15312  -1.32714
 Alpha  occ. eigenvalues --   -0.98213  -0.90336  -0.72649  -0.63813  -0.59709
 Alpha  occ. eigenvalues --   -0.58980  -0.53315  -0.47381  -0.43925  -0.41619
 Alpha  occ. eigenvalues --   -0.28598
 Alpha virt. eigenvalues --    0.32776   0.53225   0.59583   0.65048   0.68618
 Alpha virt. eigenvalues --    0.69097   0.72083   0.75797   0.91774   1.02724

 Mulliken charges:
               1
     1  C   -0.187181
     2  C    0.071300
     3  H    0.067061
     4  H    0.061570
     5  H    0.074014
     6  O   -0.239653
     7  C   -0.064249
     8  H    0.069063
     9  H    0.079012
    10  H    0.069063
 Sum of Mulliken charges =   0.00000

 Dipole moment (field-independent basis, Debye):
    X=              0.7670    Y=             -0.6018    Z=              0.0000  Tot=              0.9749
 Quadrupole moment (field-independent basis, Debye-Ang):
   XX=            -24.8176   YY=            -20.4641   ZZ=            -23.9914
   XY=              0.0267   XZ=              0.0000   YZ=              0.0000

 Normal termination of Gaussian 16 at Mon Oct  4 00:34:11 2021.
