 Gaussian 16, Revision B.01,
 Gaussian 16:  ES64L-G16RevB.01 20-Dec-2017

 ------------------------
 # hf/sto-6g pop=full opt
 ------------------------

 ------------------------
 CH2CHCHO molecule : Opt.
 ------------------------
 Symbolic Z-matrix:
 Charge =  0 Multiplicity = 1

 SCF Done:  E(RHF) =  -190.122026031     A.U. after   12 cycles
 SCF Done:  E(RHF) =  -190.137035879     A.U. after   12 cycles
 SCF Done:  E(RHF) =  -190.137512928     A.U. after   10 cycles
 SCF Done:  E(RHF) =  -190.137528716     A.U. after   10 cycles
 SCF Done:  E(RHF) =  -190.137531062     A.U. after    8 cycles
 Optimization completed.
    -- Stationary point found.

                         Standard orientation:
 ---------------------------------------------------------------------
 Center     Atomic      Atomic             Coordinates (Angstroms)
 Number     Number       Type             X           Y           Z
 ---------------------------------------------------------------------
      1          6           0        1.159568    1.341974    0.000000
      2          6           0        0.000000    0.730640    0.000000
      3          1           0        1.244711    2.416718    0.000000
      4          1           0        2.089663    0.795171    0.000000
      5          1           0       -0.930121    1.279060    0.000000
      6          6           0       -0.121469   -0.773893    0.000000
      7          8           0       -1.184290   -1.372045    0.000000
      8          1           0        0.841474   -1.306910    0.000000
 ---------------------------------------------------------------------

 The electronic state is 1-A'.
 Alpha  occ. eigenvalues --  -20.55457 -11.27733 -11.19758 -11.19457  -1.33593
 Alpha  occ. eigenvalues --   -1.02481  -0.82121  -0.73499  -0.61185  -0.60133
 Alpha  occ. eigenvalues --   -0.52185  -0.49916  -0.46709  -0.34606  -0.33456
 Alpha virt. eigenvalues --    0.22034   0.38324   0.58368   0.62557   0.67904
 Alpha virt. eigenvalues --    0.72893   0.85351   0.93124   1.05829

 Mulliken charges:
               1
     1  C   -0.119724
     2  C   -0.080333
     3  H    0.075238
     4  H    0.070482
     5  H    0.075369
     6  C    0.143863
     7  O   -0.215524
     8  H    0.050629
 Sum of Mulliken charges =   0.00000

 Dipole moment (field-independent basis, Debye):
    X=              1.6062    Y=              1.1928    Z=              0.0000  Tot=              2.0007
 Quadrupole moment (field-independent basis, Debye-Ang):
   XX=            -22.7137   YY=            -22.5167   ZZ=            -22.0344
   XY=             -2.1923   XZ=              0.0000   YZ=              0.0000

 Normal termination of Gaussian 16 at Mon Oct  4 00:30:39 2021.
