 Gaussian 16, Revision B.01,
 Gaussian 16:  ES64L-G16RevB.01 20-Dec-2017

 ------------------------
 # hf/sto-6g pop=full opt
 ------------------------

 -------------------------
 CH2CHCOOH molecule : Opt.
 -------------------------
 Symbolic Z-matrix:
 Charge =  0 Multiplicity = 1

 SCF Done:  E(RHF) =  -264.696867662     A.U. after   13 cycles
 SCF Done:  E(RHF) =  -264.707805357     A.U. after   12 cycles
 SCF Done:  E(RHF) =  -264.708621207     A.U. after   11 cycles
 SCF Done:  E(RHF) =  -264.708735741     A.U. after   10 cycles
 SCF Done:  E(RHF) =  -264.708743203     A.U. after    9 cycles
 SCF Done:  E(RHF) =  -264.708743605     A.U. after    8 cycles
 Optimization completed.
    -- Stationary point found.

                         Standard orientation:
 ---------------------------------------------------------------------
 Center     Atomic      Atomic             Coordinates (Angstroms)
 Number     Number       Type             X           Y           Z
 ---------------------------------------------------------------------
      1          6           0       -0.345034   -1.891441    0.000000
      2          6           0       -0.848142   -0.681339    0.000000
      3          1           0       -0.972938   -2.768783    0.000000
      4          1           0        0.720230   -2.062783    0.000000
      5          1           0       -1.912102   -0.501289    0.000000
      6          6           0        0.000000    0.571583    0.000000
      7          8           0       -0.420217    1.714902    0.000000
      8          8           0        1.362547    0.303219    0.000000
      9          1           0        1.785220    1.195069    0.000000
 ---------------------------------------------------------------------

 The electronic state is 1-A'.
 Alpha  occ. eigenvalues --  -20.56162 -20.52099 -11.32562 -11.20338 -11.20096
 Alpha  occ. eigenvalues --   -1.38080  -1.27976  -1.02496  -0.82004  -0.71577
 Alpha  occ. eigenvalues --   -0.61561  -0.60368  -0.56827  -0.53987  -0.50291
 Alpha  occ. eigenvalues --   -0.46474  -0.37889  -0.34996  -0.33439
 Alpha virt. eigenvalues --    0.22608   0.39073   0.54144   0.57957   0.65048
 Alpha virt. eigenvalues --    0.68022   0.72124   0.85880   0.93624   1.06372

 Mulliken charges:
               1
     1  C   -0.109213
     2  C   -0.084586
     3  H    0.077896
     4  H    0.089453
     5  H    0.079667
     6  C    0.319627
     7  O   -0.278669
     8  O   -0.308757
     9  H    0.214583
 Sum of Mulliken charges =   0.00000

 Dipole moment (field-independent basis, Debye):
    X=              0.3536    Y=             -1.1044    Z=              0.0000  Tot=              1.1596
 Quadrupole moment (field-independent basis, Debye-Ang):
   XX=            -25.1303   YY=            -26.8353   ZZ=            -26.3842
   XY=              3.9748   XZ=              0.0000   YZ=              0.0000

 Normal termination of Gaussian 16 at Mon Oct  4 00:31:48 2021.
