 Gaussian 16, Revision B.01,
 Gaussian 16:  ES64L-G16RevB.01 20-Dec-2017

 ------------------------
 # hf/sto-6g pop=full opt
 ------------------------

 -----------------------------
 CH2CHC-Ph-CH2 molecule : Opt.
 -----------------------------
 Symbolic Z-matrix:
 Charge =  0 Multiplicity = 1

 SCF Done:  E(RHF) =  -383.446927232     A.U. after   13 cycles
 SCF Done:  E(RHF) =  -383.493794917     A.U. after   13 cycles
 SCF Done:  E(RHF) =  -383.498784348     A.U. after   12 cycles
 SCF Done:  E(RHF) =  -383.501130633     A.U. after   11 cycles
 SCF Done:  E(RHF) =  -383.501438795     A.U. after   10 cycles
 SCF Done:  E(RHF) =  -383.501458834     A.U. after   10 cycles
 SCF Done:  E(RHF) =  -383.501476064     A.U. after    9 cycles
 SCF Done:  E(RHF) =  -383.501476784     A.U. after    8 cycles
 Optimization completed.
    -- Stationary point found.

                         Standard orientation:
 ---------------------------------------------------------------------
 Center     Atomic      Atomic             Coordinates (Angstroms)
 Number     Number       Type             X           Y           Z
 ---------------------------------------------------------------------
      1          6           0       -1.471414    3.324278    0.000000
      2          6           0       -0.672091    2.283276    0.000000
      3          6           0       -1.086368    0.834395    0.000000
      4          6           0       -2.368849    0.515668    0.000000
      5          1           0       -2.544747    3.252626    0.000000
      6          1           0       -1.075165    4.325637    0.000000
      7          1           0        0.386571    2.473466    0.000000
      8          1           0       -3.138332    1.265808    0.000000
      9          1           0       -2.725721   -0.496680    0.000000
     10          6           0        0.000000   -0.229484    0.000000
     11          6           0        1.359072    0.089023    0.000000
     12          6           0        2.334169   -0.894772    0.000000
     13          6           0        1.982480   -2.231831    0.000000
     14          6           0        0.639836   -2.572385    0.000000
     15          6           0       -0.330930   -1.588673    0.000000
     16          1           0        1.683458    1.113342    0.000000
     17          1           0        3.374111   -0.608771    0.000000
     18          1           0        2.741404   -2.997951    0.000000
     19          1           0        0.344838   -3.609820    0.000000
     20          1           0       -1.361851   -1.894621    0.000000
 ---------------------------------------------------------------------

 The electronic state is 1-A'.
 Alpha  occ. eigenvalues --  -11.19463 -11.19214 -11.18146 -11.18071 -11.18011
 Alpha  occ. eigenvalues --  -11.17972 -11.17802 -11.17779 -11.16908 -11.16671
 Alpha  occ. eigenvalues --   -1.10534  -1.04659  -0.97455  -0.96243  -0.93014
 Alpha  occ. eigenvalues --   -0.80890  -0.77470  -0.75081  -0.68108  -0.66754
 Alpha  occ. eigenvalues --   -0.61238  -0.58460  -0.57470  -0.54735  -0.54037
 Alpha  occ. eigenvalues --   -0.52386  -0.48157  -0.47493  -0.46444  -0.43059
 Alpha  occ. eigenvalues --   -0.41365  -0.40324  -0.30769  -0.28701  -0.24817
 Alpha virt. eigenvalues --    0.21366   0.26517   0.28589   0.41447   0.52040
 Alpha virt. eigenvalues --    0.56168   0.57889   0.59041   0.63816   0.64942
 Alpha virt. eigenvalues --    0.67544   0.71230   0.73317   0.74992   0.77358

 Mulliken charges:
               1
     1  C   -0.134103
     2  C   -0.059837
     3  C    0.009929
     4  C   -0.134457
     5  H    0.062653
     6  H    0.064616
     7  H    0.062995
     8  H    0.064839
     9  H    0.064162
    10  C    0.005458
    11  C   -0.066900
    12  C   -0.063223
    13  C   -0.063470
    14  C   -0.063527
    15  C   -0.063867
    16  H    0.062490
    17  H    0.062813
    18  H    0.063790
    19  H    0.063002
    20  H    0.062637
 Sum of Mulliken charges =   0.00000

 Dipole moment (field-independent basis, Debye):
    X=              0.0422    Y=             -0.0337    Z=              0.0000  Tot=              0.0540
 Quadrupole moment (field-independent basis, Debye-Ang):
   XX=            -51.8181   YY=            -51.9939   ZZ=            -58.2100
   XY=              0.2535   XZ=              0.0000   YZ=              0.0000

 Normal termination of Gaussian 16 at Mon Oct  4 00:37:23 2021.
