 Gaussian 16, Revision B.01,
 Gaussian 16:  ES64L-G16RevB.01 20-Dec-2017

 ------------------------
 # hf/sto-6g pop=full opt
 ------------------------

 -------------------------------
 CH2CHC-OCH3-CH2 molecule : Opt.
 -------------------------------
 Symbolic Z-matrix:
 Charge =  0 Multiplicity = 1

 SCF Done:  E(RHF) =  -267.984965327     A.U. after   13 cycles
 SCF Done:  E(RHF) =  -268.021900976     A.U. after   13 cycles
 SCF Done:  E(RHF) =  -268.022563071     A.U. after   11 cycles
 SCF Done:  E(RHF) =  -268.026695075     A.U. after   11 cycles
 SCF Done:  E(RHF) =  -268.026786563     A.U. after    9 cycles
 SCF Done:  E(RHF) =  -268.026805135     A.U. after    9 cycles
 SCF Done:  E(RHF) =  -268.026805648     A.U. after    8 cycles
 Optimization completed.
    -- Stationary point found.

                         Standard orientation:
 ---------------------------------------------------------------------
 Center     Atomic      Atomic             Coordinates (Angstroms)
 Number     Number       Type             X           Y           Z
 ---------------------------------------------------------------------
      1          6           0       -2.490292   -0.491114    0.000000
      2          6           0       -1.440710    0.294284    0.000000
      3          6           0        0.000000   -0.138510    0.000000
      4          6           0        0.409660   -1.392405    0.000000
      5          1           0       -2.417842   -1.565337    0.000000
      6          1           0       -3.489524   -0.089017    0.000000
      7          1           0       -1.564822    1.367644    0.000000
      8          1           0        1.443084   -1.674583    0.000000
      9          1           0       -0.299570   -2.196030    0.000000
     10          8           0        0.805616    1.001902    0.000000
     11          6           0        2.209727    0.738366    0.000000
     12          1           0        2.704574    1.706829    0.000000
     13          1           0        2.524431    0.185774    0.885105
     14          1           0        2.524431    0.185774   -0.885105
 ---------------------------------------------------------------------

 The electronic state is 1-A'.
 Alpha  occ. eigenvalues --  -20.55322 -11.25104 -11.24067 -11.18745 -11.17663
 Alpha  occ. eigenvalues --  -11.14883  -1.32482  -1.03101  -0.94766  -0.90401
 Alpha  occ. eigenvalues --   -0.77723  -0.67495  -0.64084  -0.59604  -0.59557
 Alpha  occ. eigenvalues --   -0.56974  -0.52179  -0.49799  -0.45316  -0.44483
 Alpha  occ. eigenvalues --   -0.41108  -0.34717  -0.26540
 Alpha virt. eigenvalues --    0.25098   0.41388   0.52072   0.58158   0.61671
 Alpha virt. eigenvalues --    0.66657   0.66869   0.68808   0.71185   0.72518
 Alpha virt. eigenvalues --    0.77412   0.86007   0.94002   0.98053   1.10698

 Mulliken charges:
               1
     1  C   -0.130244
     2  C   -0.060752
     3  C    0.136922
     4  C   -0.189452
     5  H    0.067027
     6  H    0.069273
     7  H    0.075567
     8  H    0.061800
     9  H    0.065179
    10  O   -0.244896
    11  C   -0.064813
    12  H    0.078037
    13  H    0.068176
    14  H    0.068176
 Sum of Mulliken charges =   0.00000

 Dipole moment (field-independent basis, Debye):
    X=              0.5595    Y=             -0.5678    Z=              0.0000  Tot=              0.7972
 Quadrupole moment (field-independent basis, Debye-Ang):
   XX=            -29.4981   YY=            -34.7994   ZZ=            -35.6304
   XY=              0.2915   XZ=              0.0000   YZ=              0.0000

 Normal termination of Gaussian 16 at Mon Oct  4 00:35:26 2021.
